% Model:              IceShelf2D_forward.mph
% Version:            COMSOL 5.6.0.401
% Date:               Jun 13 2024, 08:58
% Dimension:          2
% Nodes:              21665
% Expressions:        4
% Description:        Dependent variable u, Dependent variable v, Dependent variable H, given viscosity
% Length unit:        m
% x                       y                        u (1)                    v (1)                    H (1)                    nu (Pa*s)
35                        35                       1.1971408666095784E-7    3.1707526620427313E-10   362.6789360841955        1.66704737385419E13
35                        559.2685647195888        1.4537507453556752E-6    -2.375236310269786E-8    432.25897154159514       1.6711464934036406E13
0                         0                        0                        0                        450                      1.6666666666666666E13
0                         531.9148936170211        1.3340842764620624E-6    0                        452.105024898144         1.6703885356280777E13
560.6870044355492         35                       3.288753653011575E-7     -1.252674906919196E-8    339.1983463167454        1.6725233331144367E13
533.3333333329815         0                        2.1125391876005364E-7    0                        348.7238103611435        1.6722222222222188E13
35                        1085.3674351159636       2.746616849867189E-6     -2.6353427349988586E-8   444.45201247322706       1.6825127733893992E13
0                         1063.8297872340422       2.6394785684840726E-6    0                        454.16478044363964       1.681537519742033E13
1087.935154714846         35                       5.395809164530721E-7     -1.3715360090291148E-8   336.0737824743574        1.6780155544678445E13
1066.6666666663182        0                        4.22507837520248E-7      0                        336.3815978118125        1.6777777777777742E13
35                        1612.7887770123482       4.012784409479501E-6     -2.7344275495237713E-8   449.72449386007094       1.701150651589273E13
0                         1595.7446808510633       3.916182876066048E-6     0                        456.1792666364871        1.700063824939022E13
1616.4071579434815        35                       7.498219490859111E-7     -1.3634388359436679E-8   334.4437901707746        1.6835205244127799E13
1599.9999999996548        0                        6.337617562804423E-7     0                        334.45700151053956       1.6833333333333297E13
35                        2141.176812828143        5.252463515183554E-6     -2.790846865344833E-8    453.2045011456959        1.7270126770439062E13
0                         2127.6595744680844       5.164197199207979E-6     0                        458.1484834766863        1.7258847082427057E13
2145.836407336702         35                       9.603508120502007E-7     -1.3595974767646687E-8   333.12346286059494       1.6890354657683744E13
2133.3333333329915        0                        8.450156750406366E-7     0                        333.13076496188955       1.6888888888888854E13
35                        2670.290831332583        6.465109282867291E-6     -2.8390648497872294E-8   456.0265914743431        1.760007420930479E13
0                         2659.5744680851053       6.383521537909857E-6     0                        460.07243096423724       1.7588848473201354E13
2676.031871548518         35                       1.1711753400204243E-6    -1.3571016518301518E-8   331.965636611691         1.6945583886055268E13
2666.6666666663286        0                        1.056269593800831E-6     0                        331.971148601664         1.6944444444444408E13
35                        3199.9653826668646       7.65027552970177E-6      -2.8829958643495844E-8   458.51615023282494       1.800004415037708E13
0                         3191.4893617021266       7.574155892171698E-6     0                        461.9511090991399        1.798916855539285E13
3206.8583933417685        35                       1.3822519075788822E-6    -1.3544705366147882E-8   330.9062330815623        1.7000878850227332E13
3199.9999999996653        0                        1.2675235125610254E-6    0                        330.9111676856456        1.6999999999999963E13
35                        3730.0826631196296       8.807660934719898E-6     -2.922916764616243E-8    460.7982165697209        1.846837209270922E13
0                         3723.4042553191475       8.736100261993497E-6     0                        463.7845178813943        1.8458019402335312E13
3738.216359712375         35                       1.5935403566533776E-6    -1.3514608064099817E-8   329.904953289731         1.7056229173744973E13
3733.333333333002         0                        1.4787774313212198E-6    0                        329.9099259804094        1.705555555555552E13
35                        4260.555299047517        9.937044084327778E-6     -2.958891859421425E-8    462.93497212316424       1.9003054870485805E13
0                         4255.319148936169        9.869354647375247E-6     0                        465.57265731100046       1.8993307012331008E13
4270.026339862563         34.99999999999999        1.8050046070621849E-6    -1.34801467815328E-8     328.93538964601333       1.7111626582486738E13
4266.666666666339         0                        1.6900313500814142E-6    0                        328.9406522134456        1.7111111111111078E13
35                        4791.315952580222        1.1038261639770735E-5    -2.9899127213874985E-8   464.95918484577874       1.9601767774007465E13
0                         4787.23404255319         1.0973919048316948E-5    0                        467.31552738795835       1.959264066097066E13
4802.219058973777         35                       2.016611236944273E-6     -1.3441165643010236E-8   327.9797337399477        1.7167063860255893E13
4799.999999999675         0                        1.9012852688416086E-6    0                        327.98537515476          1.7166666666666633E13
35                        5322.311078166412        1.211119275860694E-5     -3.014913616865379E-8    466.8899788988068        2.02618803921232E13
0                         5319.1489361702115       1.2049793464818612E-5    0                        469.01312811226796       2.0253343578688984E13
5334.72990385845          35                       2.2283285714252142E-6    -1.3397709127851107E-8   327.0258128660868        1.722253427644697E13
5333.333333333012         0                        2.1125391876018026E-6    0                        327.0318672760809        1.722222222222219E13
35                        5853.497134691747        1.3155746346854643E-5    -3.033174052481484E-8    468.7396019841452        2.0980472479790082E13
0                         5851.063829787233        1.3096977896880234E-5    0                        470.6654594839294        2.097246490586737E13
5867.496965704561         35                       2.4401264964443007E-6    -1.3349950278567717E-8   326.06528577763186       1.7278031382163008E13
5866.666666666349         0                        2.323793106361997E-6     0                        326.0717779227052        1.7277777777777744E13
35                        6384.838229196666        1.417185299996415E-5     -3.0442554681699746E-8   470.5162787727385        2.1754350399254008E13
0                         6382.978723404254        1.4115472344501802E-5    0                        472.27252150294254       2.1746792872089293E13
6400.461583959043         35.00000000000001        2.651976914919409E-6     -1.3298148228194633E-8   325.0924804140802        1.7333549066870621E13
6399.999999999685         0                        2.5350470251221914E-6    0                        325.0994384877725        1.7333333333333299E13
35.00000000000001         6916.3045859545455       1.5159459877746225E-5    -3.047912402993729E-8    472.22572563392845       2.2580064307414977E13
0                         6914.893617021275        1.510527680768333E-5     0                        473.8343141693074        2.2572869140686625E13
6933.570321114194         34.99999999999999        2.8638545992550886E-6    -1.3242616201317381E-8   324.10361784074786       1.7389081764108924E13
6933.333333333023         0                        2.746300943882386E-6     0                        324.1110727358629        1.7388888888888855E13
34.99999999999999         7447.871487300604        1.6118526940039566E-5    -3.04404993951033E-8     473.87205822163116       2.3453926088893312E13
0                         7446.808510638295        1.6066391286424816E-5    0                        475.35083748302395       2.3447004254510742E13
7466.777308693018         35                       3.075738107591788E-6     -1.318369575475815E-8    323.09627979516347       1.7444624695865354E13
7466.66666666636          0                        2.9575548626425806E-6    0                        323.10426128967504       1.744444444444441E13
35                        7979.518483897847        1.7049024190451307E-5    -3.032686918761152E-8    475.4583303580805        2.4372027967242367E13
0                         7978.723404255317        1.6998815780726254E-5    0                        476.82209144409234       2.4365294113943785E13
8000.046034158258         35                       3.2876104371542016E-6    -1.3121736107986194E-8   322.0690353776313        1.7500174058713816E13
7999.999999999696         0                        3.168808781402775E-6     0                        322.07757024596646       1.7499999999999965E13
35                        8511.228761927245        1.7950929485483026E-5    -3.0139262819469456E-8   476.98687183542506       2.533026171183007E13
0                         8510.638297872338        1.7902550290587646E-5    0                        478.2480760525125        2.5323637413555266E13
8533.349940090808         35                       3.4994591886235135E-6    -1.3057078459843772E-8   321.0211755368619        1.7555727086229738E13
8533.333333333032         0                        3.3800627001629686E-6    0                        321.03028889497926       1.7555555555555523E13
35                        9042.988607152798        1.8824226805718363E-5    -2.9879292625464394E-8   478.4595028173391        2.632433836528517E13
0                         9042.553191489358        1.8777594816009E-5       0                        479.6287913082843        2.631775395952775E13
9066.671658163456         35                       3.7112761833748697E-6    -1.299004506570925E-8    319.95252215329486       1.7611281969194863E13
9066.66666666637          0                        3.5913166189231636E-6    0                        319.9622410661533        1.761111111111108E13
35                        9574.786935622376        1.9668904863581987E-5    -2.9548958592077786E-8   479.87767525444673       2.734980843003961E13
0                         9574.468085106379        1.9623949356990307E-5    0                        480.96423721140786       2.7343203786041445E13
9600.0011733333           35.00000000000001        3.923056657172668E-6     -1.2920933026725961E-8   318.8632892059281        1.7666837664365473E13
9599.999999999705         0                        3.8025705376833574E-6    0                        318.87364669635934       1.7666666666666633E13
35                        10106.614876931373       2.0484955979306393E-5    -2.9150501519032065E-8   481.24256833349114       2.840208246444967E13
0                         10106.382978723399       2.044161391353157E-5     0                        482.2544137618832        2.839540698523942E13
10133.333525347416        35                       4.134798275208981E-6     -1.285001228174478E-8    317.7539803018202        1.7722393655043547E13
10133.333333333043        0                        4.0138244564435516E-6    0                        317.7650181873824        1.7722222222222188E13
35                        10638.465404064173       2.1272375176037924E-5    -2.8686301155123625E-8   482.55515448445686       2.947645204600975E13
0                         10638.29787234042        2.1230588485632785E-5    0                        483.49932095971025       2.946966416220785E13
10666.666683100539        34.99999999999999        4.3465002229146465E-6    -1.2777526615499904E-8   316.6253114644531        1.7777949729653586E13
10666.66666666638         0                        4.225078375203747E-6     0                        316.63708135744173       1.7777777777777746E13
35                        11170.333007286252       2.2031159456423126E-5    -2.8158800477193435E-8   483.81624604226033       3.0568111060696016E13
0                         11170.21276595744        2.1990873073293963E-5    0                        484.69895880488906       3.0561177423614484E13
11199.999999999716        0                        4.436332293963941E-6     0                        315.49071427795866       1.7833333333333305E13
11199.999999999716        35                       4.558162535239977E-6     -1.27036961692036E-8     315.4781515800371        1.7833505820841496E13
34.99999999999999         11702.213410515427       2.2761307233461712E-5    -2.7570460876340558E-8   485.0265289602907        3.167217727429361E13
0                         11702.12765957446        2.2722467676515092E-5    0                        485.85332729741964       3.1665071806265008E13
11733.333333333054        0                        4.647586212724135E-6     0                        314.3268995741332        1.7888888888888855E13
11733.333333333054        35                       4.769785697021421E-6     -1.26287201495183E-8     314.31347562355774       1.7889061913741312E13
35                        12234.103328349758       2.3462817889956675E-5    -2.6923736904936237E-8   486.1865876794117        3.2783714135058555E13
0                         12234.042553191483       2.3425372295296175E-5    0                        486.96242643730193       3.277641704987208E13
12266.66666666639         0                        4.85884013148433E-6      0                        313.14668718030003       1.7944444444444414E13
12266.66666666639         35                       4.981370449716587E-6     -1.2552779018461254E-8   313.1323276810267        1.7944618006641133E13
35                        12766.000261236888       2.4135691443614098E-5    -2.622106509289726E-8    487.29692387543173       3.3897752748748562E13
0                         12765.957446808501       2.4099586929637214E-5    0                        488.026256224536         3.3890249616794555E13
12799.999999999727        0                        5.070094050244524E-6     0                        311.9511653549336        1.799999999999997E13
12799.999999999727        35                       5.192917710211249E-6     -1.2476036052836579E-8   311.93579184995855       1.800017409954095E13
35.00000000000001         13297.902325558625       2.4779928298220978E-5    -2.546485885339631E-8    488.3579708600061        3.5009313958253258E13
0                         13297.872340425522       2.474511157953821E-5     0                        489.04481665912175       3.5001594860401617E13
13333.333333333063        0                        5.2813479690047175E-6    0                        310.74143823613          1.8055555555555527E13
13333.333333333063        35                       5.404428531688499E-6     -1.2398638496662789E-8   310.72496956081835       1.805573019244077E13
35.00000000000001         13829.808114881063       2.539552906436771E-5     -2.4657505588334466E-8   489.37010481513573       3.611343045178796E13
0                         13829.78723404254        2.536194624499916E-5     0                        490.0181077410592        3.610548924305214E13
13866.666666666399        0                        5.492601887764913E-6     0                        309.51860855287157       1.811111111111108E13
13866.666666666399        35                       5.615904075343574E-6     -1.2320718553269983E-8   309.5009620618172        1.8111286285340586E13
35                        14361.716588355406       2.5982494435314143E-5    -2.380136662543057E-8    490.33365368030155       3.720516881656318E13
0                         14361.702127659559       2.5950090926020067E-5    0                        490.9461294703485        3.7197002504458766E13
14399.999999999738        0                        5.703855806525108E-6     0                        308.2837643927154        1.8166666666666637E13
14399.999999999738        35                       5.827345585874702E-6     -1.224239433958781E-8    308.26485699272143       1.8166842378240402E13
35                        14893.62698223985        2.6540825105014928E-5    -2.2898781147428578E-8   491.24890429396623       3.827965144936969E13
0                         14893.61702127658        2.6509545622600933E-5    0                        491.8288818469896        3.827125968142719E13
14933.333333333074        0                        5.915109725285301E-6     0                        307.0379691716751        1.8222222222222195E13
14933.333333333074        35                       6.038754370290477E-6     -1.2163770825286915E-8   307.0177181884217        1.8222398471140223E13
35                        15425.538740701557       2.7070521717105403E-5    -2.1952072616265025E-8   492.11610822854533       3.933207823173925E13
0                         15425.531914893598       2.704031033474175E-5     0                        492.6663648709823        3.932346288062517E13
15466.666666666411        0                        6.126363644045496E-6     0                        305.78225414397457       1.827777777777775E13
15466.666666666411        35                       6.2501317796380325E-6    -1.2084940749490166E-8   305.76057804560475       1.8277954564040043E13
35                        15957.451462388215       2.7571584836086742E-5    -2.0963554673915105E-8   492.93548661750924       4.035774787519459E13
0                         15957.446808510616       2.7542385062442525E-5    0                        493.45857854232685       4.0348912707138875E13
15999.999999999747        0                        6.337617562805689E-6     0                        304.51761293259          1.8333333333333305E13
15999.999999999747        35                       6.4614791933032735E-6    -1.2005985507987508E-8   304.4944319298942        1.833351065693986E13
35                        16489.36485967132        2.80440149342815E-5      -1.9935534900023872E-8   493.70723417228504       4.135207884142463E13
0                         16489.361702127637       2.8015769805703258E-5    0                        494.20552286102304       4.134302925311136E13
16533.33333333308         0                        6.5488714815658835E-6    0                        303.2449976706953        1.838888888888886E13
16533.33333333308         35                       6.672798005574499E-6     -1.1926976006066889E-8   303.220234210676         1.8389066749839676E13
35                        17021.278727907436       2.8487812389714304E-5    -1.8870317017426354E-8   494.4315225355874        4.231062974280417E13
0                         17021.276595744654       2.846046456452394E-5     0                        494.90719782707106       4.230137255272283E13
17066.66666666642         0                        6.7601254003260786E-6    0                        301.9653164281821        1.8444444444444418E13
17066.66666666642         35                       6.884089614196065E-6     -1.1847973473791379E-8   301.93889559539286       1.8444622842739496E13
35                        17553.192922501872       2.8902977491056927E-5    -1.7770202805898755E-8   495.1085030957533        4.32291191303045E13
0                         17553.191489361674       2.8876469338904586E-5    0                        495.5636034404708        4.321966241215587E13
17599.999999999756        0                        6.971379319086273E-6     0                        300.67943166268896       1.8499999999999977E13
17599.999999999756        35                       7.095355410670489E-6     -1.1769030241865153E-8   300.6512815007607        1.8500178935639312E13
35.00000000000001         18085.107341965828       2.9289510446637063E-5    -1.6637494192723104E-8   495.738309366588         4.410344457831812E13
0                         18085.106382978694       2.9263784128845182E-5    0                        496.1747397012222        4.409379752597999E13
18133.333333333096        0                        7.182633237846469E-6     0                        299.3881594856797        1.855555555555553E13
18133.333333333096        35                       7.306596772095521E-6     -1.1690190477184549E-8   299.35821124977946       1.8555735028539133E13
35.00000000000001         18617.021915519224       2.964741139540327E-5     -1.5474495194425553E-8   496.32105901226487       4.492970097908012E13
0                         18617.02127659571        2.9622408934345735E-5    0                        496.7406066093254        4.491987379457732E13
18666.66666666643         0                        7.393887156606662E-6     0                        298.09226957444486       1.8611111111111086E13
18666.66666666643         35                       7.5178150543474E-6       -1.1611490877889474E-8   298.06045792400715       1.861129112143895E13
35                        19148.93659410058        2.9976680418502248E-5    -1.4283513310471595E-8   496.85685557482947       4.570419796307973E13
0                         19148.93617021273        2.9952343755406248E-5    0                        497.26120416478045       4.569420176079924E13
19199.999999999767        0                        7.605141075366856E-6     0                        296.7924855929611        1.866666666666664E13
19199.999999999767        35                       7.729011586443636E-6     -1.1532961328263454E-8   296.75874873283175       1.866684721433877E13
35.00000000000001         19680.85134390257        3.0277317550645808E-5    -1.3066860283589781E-8   497.34578994801245       4.642347636601748E13
0                         19680.851063829752       3.0253588592026714E-5    0                        497.73653236758713       4.641332308797764E13
19733.333333333103        0                        7.81639499412705E-6      0                        295.4894860101987        1.87222222222222E13
19733.333333333103        35                       7.940187665937983E-6     -1.1454625514236235E-8   295.4537657873025        1.8722403307238586E13
35                        20212.766141760934       3.054932279076693E-5     -1.182685237592379E-8    497.7879416332628        4.7084323667403164E13
0                         20212.76595744677        3.0526143444207134E-5    0                        498.1665912177455        4.707402600569595E13
20266.66666666644         0                        8.027648912887244E-6     0                        294.18390522512453       1.877777777777775E13
20266.66666666644         35                       8.151344555217305E-6     -1.1376501500498571E-8   294.1461471868823        1.8777959400138402E13
35                        20744.680971890273       3.079269611167601E-5     -1.0565810351604414E-8   498.18337980845735       4.768378833075098E13
0                         20744.68085106379        3.077000831194751E-5     0                        498.55138071525573       4.767335965433561E13
20799.999999999778        0                        8.23890283164744E-6      0                        292.87633492435907       1.883333333333331E13
20799.999999999778        35                       8.362483478585262E-6     -1.1298602270470285E-8   292.83648834431096       1.8833515493038223E13
35                        21276.595823589938       3.10074374685782E-5      -9.286059297332932E-9    498.5321642348745        4.8219192980473734E13
0                         21276.59574468081        3.0985183195247846E-5    0                        498.89090086011765       4.820864726433131E13
21333.333333333114        0                        8.450156750407632E-6     0                        291.56732561203995       1.8888888888888867E13
21333.333333333114        35                       8.573605620030834E-6     -1.1220936230472298E-8   291.5253434874642        1.888907158593804E13
35                        21808.51068964284        3.1193546806416983E-5    -7.98992834316007E-9     498.8343460235004        4.8688146355975984E13
0                         21808.510638297827       3.1171668094108136E-5    0                        499.18515165233134       4.8677498111273766E13
21866.666666666453        0                        8.661410669167828E-6     0                        290.2573882625477        1.894444444444442E13
21866.666666666453        35                       8.784712121591617E-6     -1.1143507679553155E-8   290.21322728828096       1.894462767883786E13
35                        22340.425565205147       3.1351024066077885E-5    -6.679750303398527E-9    499.0899682777366        4.9088553989071E13
0                         22340.425531914843       3.132946300852838E-5     0                        499.4341330918968        4.907781819346528E13
22399.999999999785        0                        8.872664587928022E-6     0                        288.94699605584833       1.8999999999999977E13
22399.999999999785        35                       8.99580408223195E-6      -1.1066317246469916E-8   288.9006165780024        1.9000183771737676E13
35                        22872.340447041184       3.147986918952445E-5     -5.357861245961324E-9    499.2990666262214        4.941862755667798E13
0                         22872.340425531867       3.145856793850858E-5     0                        499.6378451788139        4.940781958423958E13
22933.333333333125        0                        9.083918506688216E-6     0                        287.63658616269527       1.905555555555553E13
22933.333333333125        35                       9.206882557165314E-6     -1.09893622953475E-8     287.5879521155173        1.9055739864637492E13
35                        23404.255332999346       3.1580082123954466E-5    -4.0266000039722596E-9   499.461669656758         4.9676892866772016E13
0                         23404.255319148888       3.1558982884048746E-5    0                        499.79628791308284       4.966602841727642E13
23466.66666666646         0                        9.29517242544841E-6      0                        286.32656155311724       1.911111111111109E13
23466.66666666646         35                       9.417948557558273E-6     -1.0912637301553649E-8   286.27564038184545       1.9111295957537312E13
0                         23936.17021276591        3.1630707845148856E-5    0                        499.9094612947035        4.985129146924632E13
35                        23936.170221655226       3.165166282506377E-5     -2.688307649124505E-9    499.57779926013154       4.986219644173726E13
23999.9999999998          0                        9.506426344208606E-6     0                        285.01729280672436       1.9166666666666645E13
23999.9999999998          35                       9.62900305056066E-6      -1.0836134199317348E-8   284.96405537894327       1.9166852050437133E13
0                         24468.085106382925       3.1673742821808926E-5    0                        499.9773653236759        4.996278131038588E13
35                        24468.085112069824       3.1694611259494334E-5    -1.3453269436715114E-9   499.64747089071136       4.9973710669593234E13
24533.333333333132        0                        9.717680262968797E-6     0                        283.70911990761124       1.92222222222222E13
24533.333333333132        35                       9.840046959612835E-6     -1.0759842702594359E-8   283.65354041530145       1.922240814333695E13
0                         24999.999999999945       3.168808781402895E-5     0                        500                      5.0E13
35                        25000.000003626723       3.170892740652891E-5     -1.7814134260687626E-15  499.6706937490145        5.00109375E13
25066.66666666647         0                        9.928934181728993E-6     0                        282.40235401015326       1.9277777777777758E13
25066.66666666647         35                       1.0051081164986625E-5    -1.06837506006864E-8     282.3444098643615        1.9277964236236766E13
0                         25531.914893616966       3.167374282180893E-5     0                        499.9773653236759        4.996278131038589E13
35                        25531.914895922855       3.169461125907666E-5     1.3453233769694185E-9    499.64747088982034       4.997371066847489E13
25599.99999999981         0                        1.0140188100489189E-5    0                        281.0972791649227        1.9333333333333312E13
25599.99999999981         35                       1.026210650452162E-5     -1.0607844030065244E-8   281.0369508847324        1.9333520329136586E13
0                         26063.829787233983       3.163070784514886E-5     0                        499.9094612947035        4.985129146924635E13
35                        26063.82978869569        3.1651662823974444E-5    2.6883040710749924E-9    499.57779925793824       4.986219643884711E13
26133.333333333143        0                        1.0351442019249381E-5    0                        279.7941539963925        1.9388888888888867E13
26133.333333333143        35                       1.0473123774522837E-5    -1.0532107723830214E-8   279.7314250936645        1.9389076422036406E13
0                         26595.744680851003       3.155898288404876E-5     0                        499.79628791308284       4.966602841727648E13
35                        26595.74468177489        3.158008212160599E-5     4.026596408010421E-9     499.461669652311         4.9676892860607234E13